REMARK SMILES CNC(=O)[C@@H](NC(=O)[C@H](CC(C)C)[C@H](CNC(=O)c1nccs1)C(=O)NO)C(C)(C)C
REMARK SMILES IDX 9 1 7 2 6 3 8 4 5 6 3 7 2 8 4 9 1 10 28 12 29 13 30 14 31 15
REMARK SMILES IDX 10 16 11 17 12 18 13 19 14 20 15 21 16 22 17 23 18 24 19 26
REMARK SMILES IDX 23 27 20 28 22 29 21 30 24 31 25 32 26 33 27 35
REMARK H PARENT 6 5 2 11 16 25 26 34 27 36
ROOT
ATOM      1  C   UNL     1       0.490   0.611   0.870  1.00  0.00    +0.093 C 
ENDROOT
BRANCH   1   2
ATOM      2  C   UNL     1      -0.340  -0.668   0.691  1.00  0.00    +0.224 C 
ATOM      3  N   UNL     1      -1.645  -0.599   1.132  1.00  0.00    -0.344 N 
ATOM      4  O   UNL     1       0.145  -1.709   0.254  1.00  0.00    -0.275 OA
ATOM      5  H   UNL     1      -2.084   0.315   1.126  1.00  0.00    +0.164 HD
BRANCH   3   6
ATOM      6  C   UNL     1      -2.559  -1.714   0.861  1.00  0.00    +0.176 C 
BRANCH   6   7
ATOM      7  C   UNL     1      -3.072  -1.502  -0.587  1.00  0.00    +0.242 C 
ATOM      8  N   UNL     1      -3.259  -2.661  -1.313  1.00  0.00    -0.357 N 
ATOM      9  O   UNL     1      -3.300  -0.376  -1.032  1.00  0.00    -0.273 OA
ATOM     10  C   UNL     1      -3.716  -2.654  -2.678  1.00  0.00    +0.142 C 
ATOM     11  H   UNL     1      -3.072  -3.554  -0.875  1.00  0.00    +0.163 HD
ENDBRANCH   6   7
BRANCH   6  12
ATOM     12  C   UNL     1      -3.704  -1.821   1.918  1.00  0.00    -0.009 C 
ATOM     13  C   UNL     1      -4.604  -0.569   1.948  1.00  0.00    +0.013 C 
ATOM     14  C   UNL     1      -3.084  -2.012   3.321  1.00  0.00    +0.013 C 
ATOM     15  C   UNL     1      -4.599  -3.044   1.629  1.00  0.00    +0.013 C 
ENDBRANCH   6  12
ENDBRANCH   3   6
ENDBRANCH   1   2
BRANCH   1  16
ATOM     16  C   UNL     1      -0.180   1.803   0.132  1.00  0.00    +0.017 C 
BRANCH  16  17
ATOM     17  C   UNL     1       0.575   3.152   0.170  1.00  0.00    -0.017 C 
ATOM     18  C   UNL     1      -0.225   4.221  -0.581  1.00  0.00    +0.007 C 
ATOM     19  C   UNL     1       0.846   3.630   1.599  1.00  0.00    +0.007 C 
ENDBRANCH  16  17
ENDBRANCH   1  16
BRANCH   1  20
ATOM     20  C   UNL     1       1.973   0.396   0.451  1.00  0.00    +0.112 C 
BRANCH  20  21
ATOM     21  C   UNL     1       2.181  -0.059  -1.002  1.00  0.00    +0.130 C 
BRANCH  21  22
ATOM     22  N   UNL     1       3.369   0.538  -1.586  1.00  0.00    -0.349 N 
ATOM     23  C   UNL     1       3.554   0.606  -2.960  1.00  0.00    +0.280 C 
ATOM     24  O   UNL     1       2.660   0.316  -3.752  1.00  0.00    -0.267 OA
ATOM     25  H   UNL     1       4.222   0.637  -1.036  1.00  0.00    +0.163 HD
BRANCH  23  26
ATOM     26  C   UNL     1       4.896   1.036  -3.338  1.00  0.00    +0.181 A 
ATOM     27  S   UNL     1       5.345   1.211  -4.982  1.00  0.00    -0.118 S 
ATOM     28  N   UNL     1       5.838   1.308  -2.449  1.00  0.00    -0.240 NA
ATOM     29  C   UNL     1       6.912   1.714  -4.489  1.00  0.00    +0.087 A 
ATOM     30  C   UNL     1       6.989   1.701  -3.111  1.00  0.00    +0.124 A 
ENDBRANCH  23  26
ENDBRANCH  21  22
ENDBRANCH  20  21
BRANCH  20  31
ATOM     31  C   UNL     1       2.714  -0.490   1.449  1.00  0.00    +0.249 C 
ATOM     32  O   UNL     1       3.456  -0.011   2.309  1.00  0.00    -0.272 OA
ATOM     33  N   UNL     1       2.509  -1.842   1.372  1.00  0.00    -0.238 N 
ATOM     34  H   UNL     1       1.669  -2.236   0.940  1.00  0.00    +0.198 HD
BRANCH  33  35
ATOM     35  O   UNL     1       3.115  -2.605   2.403  1.00  0.00    -0.289 OA
ATOM     36  H   UNL     1       3.673  -1.935   2.853  1.00  0.00    +0.246 HD
ENDBRANCH  33  35
ENDBRANCH  20  31
ENDBRANCH   1  20
TORSDOF 12
